#LAMMPS 100 water
40 atoms
4 atom types

0.0 8.2 xlo xhi
0.0 8.2 ylo yhi
0.0 8.2 zlo zhi

Masses

1 137.327  #Ba
2 40.078  #Ca
3 91.224 #Zr
4 15.9993  #o

Atoms

1 1 2 1.313 0.007562039999999999 0.4227960918 8.0846447862
2 1 2 1.313 4.1079638236 0.42346849999999997 0.11667615999999999
3 1 2 1.313 0.0079667592 4.5233324374 0.11667615999999999
4 1 2 1.313 4.107558153199999 4.5226574626 8.084645762
5 1 1 1.313 0.0057851 0.057901839999999996 4.058357078999999
6 1 1 1.313 4.106243397999999 0.057699299999999995 4.142213550799999
7 1 1 1.313 0.006241839999999999 4.1577369954 4.142341601999999
8 1 1 1.313 4.1057868958 4.157947645199999 4.0582414836
9 1 3 1.097974 2.0393883308 2.1548574261999995 1.992335099
10 1 3 1.097974 6.172799099599999 2.1551560619999997 1.9923982718
11 1 3 1.097974 2.0727780829999998 6.2551426139999995 1.9923343692
12 1 3 1.097974 6.139412037 6.2548386072 1.9922711964
13 1 3 1.097974 2.0727304246 2.1544590866 6.207921741399999
14 1 3 1.097974 6.139342632199999 2.1546475062 6.2078772646
15 1 3 1.097974 2.0393654774 6.254636264 6.2079329836
16 1 3 1.097974 6.172709654 6.254442719399999 6.207979903999999
17 1 4 -0.803658 2.054561578 1.7809457573999998 0.00010824
18 1 4 -0.803658 6.156331375799999 1.7817910708 0.00017219999999999998
19 1 4 -0.803658 2.0563697436 5.881311592199999 0.0001681
20 1 4 -0.803658 6.154549359999999 5.8804518714 0.00010413999999999999
21 1 4 -0.803658 2.0556414934 2.0394506426 4.1000146615999995
22 1 4 -0.803658 6.1542228688 2.0394408682 4.0999345065999995
23 1 4 -0.803658 2.0542089369999994 6.1396656958 4.099930349199999
24 1 4 -0.803658 6.155656401 6.1396735185999995 4.1000107502
25 1 4 -0.803658 2.5324692383999996 0.0259853162 1.9985942573999997
26 1 4 -0.803658 5.680195948599999 0.025940347399999997 1.9984056
27 1 4 -0.803658 1.5801965635999997 4.1259506138 1.9987074009999999
28 1 4 -0.803658 6.6324648349999995 4.1259897114 1.9989001009999998
29 1 4 -0.803658 1.5798538199999999 0.025515128199999997 6.201226244599999
30 1 4 -0.803658 6.631624663 0.025497531 6.2018469682
31 1 4 -0.803658 2.5316114691999996 4.1255053537999995 6.201537098399999
32 1 4 -0.803658 5.679866037999999 4.125519039599999 6.200911487599999
33 1 4 -0.803658 0.005937619999999999 1.6427208173999999 1.9259528272
34 1 4 -0.803658 4.1057580564 2.5100330379999996 1.8279718635999997
35 1 4 -0.803658 0.005760499999999999 6.610071897799999 1.8278365963999998
36 1 4 -0.803658 4.105939875 5.7427648104 1.9259233809999998
37 1 4 -0.803658 0.0056549332 2.5089555743999994 6.3697558999999995
38 1 4 -0.803658 4.1058391954 1.6421328445999999 6.275548756799999
39 1 4 -0.803658 0.005843590599999999 5.742174877799999 6.275595185199999
40 1 4 -0.803658 4.1056578606 6.608989300999999 6.369830675799999
